
8	atoms
2	atom types
-10.0	16.713000	xlo xhi
-10.0	16.713000	ylo yhi
-10.0	16.713000	zlo zhi

Atoms

1	1	5.571000	3.216418	2.274351
2	2	0.000000	0.000000	0.000000
3	2	2.785500	0.000000	0.000000
4	2	1.392750	0.804105	2.274351
5	2	4.178250	2.412314	0.000000
6	2	2.785500	3.216418	2.274351
7	2	1.392750	2.412314	0.000000
8	2	4.178250	0.804105	2.274351
